# vtk DataFile Version 3.0
vtk output
ASCII
DATASET STRUCTURED_GRID
DIMENSIONS 10 12 1
POINTS 120 float
0 0 0
0 0.0625 0
0 0.1875 0
0 0.3125 0
0 0.4375 0
0 0.5625 0
0 0.6875 0
0 0.8125 0
0 0.9375 0
0 1 0
0.05 0 0
0.05 0.0625 0
0.05 0.1875 0
0.05 0.3125 0
0.05 0.4375 0
0.05 0.5625 0
0.05 0.6875 0
0.05 0.8125 0
0.05 0.9375 0
0.05 1 0
0.15 0 0
0.15 0.0625 0
0.15 0.1875 0
0.15 0.3125 0
0.15 0.4375 0
0.15 0.5625 0
0.15 0.6875 0
0.15 0.8125 0
0.15 0.9375 0
0.15 1 0
0.25 0 0
0.25 0.0625 0
0.25 0.1875 0
0.25 0.3125 0
0.25 0.4375 0
0.25 0.5625 0
0.25 0.6875 0
0.25 0.8125 0
0.25 0.9375 0
0.25 1 0
0.35 0 0
0.35 0.0625 0
0.35 0.1875 0
0.35 0.3125 0
0.35 0.4375 0
0.35 0.5625 0
0.35 0.6875 0
0.35 0.8125 0
0.35 0.9375 0
0.35 1 0
0.45 0 0
0.45 0.0625 0
0.45 0.1875 0
0.45 0.3125 0
0.45 0.4375 0
0.45 0.5625 0
0.45 0.6875 0
0.45 0.8125 0
0.45 0.9375 0
0.45 1 0
0.55 0 0
0.55 0.0625 0
0.55 0.1875 0
0.55 0.3125 0
0.55 0.4375 0
0.55 0.5625 0
0.55 0.6875 0
0.55 0.8125 0
0.55 0.9375 0
0.55 1 0
0.65 0 0
0.65 0.0625 0
0.65 0.1875 0
0.65 0.3125 0
0.65 0.4375 0
0.65 0.5625 0
0.65 0.6875 0
0.65 0.8125 0
0.65 0.9375 0
0.65 1 0
0.75 0 0
0.75 0.0625 0
0.75 0.1875 0
0.75 0.3125 0
0.75 0.4375 0
0.75 0.5625 0
0.75 0.6875 0
0.75 0.8125 0
0.75 0.9375 0
0.75 1 0
0.85 0 0
0.85 0.0625 0
0.85 0.1875 0
0.85 0.3125 0
0.85 0.4375 0
0.85 0.5625 0
0.85 0.6875 0
0.85 0.8125 0
0.85 0.9375 0
0.85 1 0
0.95 0 0
0.95 0.0625 0
0.95 0.1875 0
0.95 0.3125 0
0.95 0.4375 0
0.95 0.5625 0
0.95 0.6875 0
0.95 0.8125 0
0.95 0.9375 0
0.95 1 0
1 0 0
1 0.0625 0
1 0.1875 0
1 0.3125 0
1 0.4375 0
1 0.5625 0
1 0.6875 0
1 0.8125 0
1 0.9375 0
1 1 0
CELL_DATA 99
POINT_DATA 120
SCALARS Pressure float
LOOKUP_TABLE default
-nan
-nan
-nan
-nan
-nan
-nan
-nan
-nan
-nan
-nan
-nan
-nan
-nan
-nan
-nan
-nan
-nan
-nan
-nan
-nan
-nan
-nan
-nan
-nan
-nan
-nan
-nan
-nan
-nan
-nan
-nan
-nan
-nan
-nan
-nan
-nan
-nan
-nan
-nan
-nan
-nan
-nan
-nan
-nan
-nan
-nan
-nan
-nan
-nan
-nan
-nan
-nan
-nan
-nan
-nan
-nan
-nan
-nan
-nan
-nan
-nan
-nan
-nan
-nan
-nan
-nan
-nan
-nan
-nan
-nan
-nan
-nan
-nan
-nan
-nan
-nan
-nan
-nan
-nan
-nan
-nan
-nan
-nan
-nan
-nan
-nan
-nan
-nan
-nan
-nan
0
0
0
0
0
0
0
0
0
0
2.99238e-05
2.99238e-05
7.66797e-05
0.000243248
0.00078989
0.00257074
0.00836836
0.0272415
0.0886796
0.0886796
2.99238e-05
2.99238e-05
7.66797e-05
0.000243248
0.00078989
0.00257074
0.00836836
0.0272415
0.0886796
0.0886796
VECTORS Velocity float
0
0
0
0
0
0
0
0
0
0
0
0
0
0
0
0
0
0
0
0
0
0
0
0
0
0
0
0
0
0
0
0
0
-nan
-nan
0
-nan
-nan
0
-nan
-nan
0
-nan
-nan
0
-nan
-nan
0
-nan
-nan
0
-nan
-nan
0
-nan
-nan
0
1
0
0
0
0
0
-nan
-nan
0
-nan
-nan
0
-nan
-nan
0
-nan
-nan
0
-nan
-nan
0
-nan
-nan
0
-nan
-nan
0
-nan
-nan
0
1
0
0
0
0
0
-nan
-nan
0
-nan
-nan
0
-nan
-nan
0
-nan
-nan
0
-nan
-nan
0
-nan
-nan
0
-nan
-nan
0
-nan
-nan
0
1
0
0
0
0
0
-nan
-nan
0
-nan
-nan
0
-nan
-nan
0
-nan
-nan
0
-nan
-nan
0
-nan
-nan
0
-nan
-nan
0
-nan
-nan
0
1
0
0
0
0
0
-nan
-nan
0
-nan
-nan
0
-nan
-nan
0
-nan
-nan
0
-nan
-nan
0
-nan
-nan
0
-nan
-nan
0
-nan
-nan
0
1
0
0
0
0
0
-nan
-nan
0
-nan
-nan
0
-nan
-nan
0
-nan
-nan
0
-nan
-nan
0
-nan
-nan
0
-nan
-nan
0
-nan
-nan
0
1
0
0
0
0
0
-nan
-nan
0
-nan
-nan
0
-nan
-nan
0
-nan
-nan
0
-nan
-nan
0
-nan
-nan
0
-nan
-nan
0
-nan
-nan
0
1
0
0
0
0
0
-nan
-nan
0
-nan
-nan
0
-nan
-nan
0
-nan
-nan
0
-nan
-nan
0
-nan
-nan
0
-nan
-nan
0
-nan
-nan
0
1
0
0
0
0
0
-nan
-nan
0
-nan
-nan
0
-nan
-nan
0
-nan
-nan
0
-nan
-nan
0
-nan
-nan
0
-nan
-nan
0
-nan
-nan
0
1
0
0
0
0
0
-nan
-nan
0
-nan
-nan
0
-nan
-nan
0
-nan
-nan
0
-nan
-nan
0
-nan
-nan
0
-nan
-nan
0
-nan
-nan
0
1
0
0
0
0
0
0
0
0
0
0
0
0
0
0
0
0
0
0
0
0
0
0
0
0
0
0
0
0
0
0
0
0
