# vtk DataFile Version 3.0
vtk output
ASCII
DATASET STRUCTURED_GRID
DIMENSIONS 10 12 1
POINTS 120 float
0 0 0
0 0.0625 0
0 0.1875 0
0 0.3125 0
0 0.4375 0
0 0.5625 0
0 0.6875 0
0 0.8125 0
0 0.9375 0
0 1 0
0.05 0 0
0.05 0.0625 0
0.05 0.1875 0
0.05 0.3125 0
0.05 0.4375 0
0.05 0.5625 0
0.05 0.6875 0
0.05 0.8125 0
0.05 0.9375 0
0.05 1 0
0.15 0 0
0.15 0.0625 0
0.15 0.1875 0
0.15 0.3125 0
0.15 0.4375 0
0.15 0.5625 0
0.15 0.6875 0
0.15 0.8125 0
0.15 0.9375 0
0.15 1 0
0.25 0 0
0.25 0.0625 0
0.25 0.1875 0
0.25 0.3125 0
0.25 0.4375 0
0.25 0.5625 0
0.25 0.6875 0
0.25 0.8125 0
0.25 0.9375 0
0.25 1 0
0.35 0 0
0.35 0.0625 0
0.35 0.1875 0
0.35 0.3125 0
0.35 0.4375 0
0.35 0.5625 0
0.35 0.6875 0
0.35 0.8125 0
0.35 0.9375 0
0.35 1 0
0.45 0 0
0.45 0.0625 0
0.45 0.1875 0
0.45 0.3125 0
0.45 0.4375 0
0.45 0.5625 0
0.45 0.6875 0
0.45 0.8125 0
0.45 0.9375 0
0.45 1 0
0.55 0 0
0.55 0.0625 0
0.55 0.1875 0
0.55 0.3125 0
0.55 0.4375 0
0.55 0.5625 0
0.55 0.6875 0
0.55 0.8125 0
0.55 0.9375 0
0.55 1 0
0.65 0 0
0.65 0.0625 0
0.65 0.1875 0
0.65 0.3125 0
0.65 0.4375 0
0.65 0.5625 0
0.65 0.6875 0
0.65 0.8125 0
0.65 0.9375 0
0.65 1 0
0.75 0 0
0.75 0.0625 0
0.75 0.1875 0
0.75 0.3125 0
0.75 0.4375 0
0.75 0.5625 0
0.75 0.6875 0
0.75 0.8125 0
0.75 0.9375 0
0.75 1 0
0.85 0 0
0.85 0.0625 0
0.85 0.1875 0
0.85 0.3125 0
0.85 0.4375 0
0.85 0.5625 0
0.85 0.6875 0
0.85 0.8125 0
0.85 0.9375 0
0.85 1 0
0.95 0 0
0.95 0.0625 0
0.95 0.1875 0
0.95 0.3125 0
0.95 0.4375 0
0.95 0.5625 0
0.95 0.6875 0
0.95 0.8125 0
0.95 0.9375 0
0.95 1 0
1 0 0
1 0.0625 0
1 0.1875 0
1 0.3125 0
1 0.4375 0
1 0.5625 0
1 0.6875 0
1 0.8125 0
1 0.9375 0
1 1 0
CELL_DATA 99
POINT_DATA 120
SCALARS Pressure float
LOOKUP_TABLE default
0.00216269
0.00216269
0.00321863
0.0016514
-0.00451433
-0.0163475
-0.0347297
-0.0648616
-0.127977
-0.127977
0.00216269
0.00216269
0.00321863
0.0016514
-0.00451433
-0.0163475
-0.0347297
-0.0648616
-0.127977
-0.127977
0.00119874
0.00119874
0.0018165
-0.000366773
-0.00687032
-0.0183118
-0.0337503
-0.0499894
-0.0568663
-0.0568663
0.00101224
0.00101224
0.00136448
-0.00135641
-0.00833143
-0.0196221
-0.0326611
-0.0408874
-0.033414
-0.033414
0.00197223
0.00197223
0.00186297
-0.00145836
-0.00908549
-0.0208073
-0.0330662
-0.038388
-0.0294768
-0.0294768
0.00416297
0.00416297
0.00347861
-0.000331226
-0.00856231
-0.0211295
-0.0340581
-0.0389763
-0.0312195
-0.0312195
0.00739609
0.00739609
0.0062253
0.00233022
-0.00602011
-0.0190982
-0.0328138
-0.0370743
-0.0279172
-0.0279172
0.0108615
0.0108615
0.00945982
0.00632156
-0.000690968
-0.0126228
-0.0257672
-0.025585
-0.00414901
-0.00414901
0.0132931
0.0132931
0.0119211
0.0103011
0.0068854
0.0012249
-0.00279022
0.00837544
0.0449549
0.0449549
0.0136411
0.0136411
0.0122785
0.0118454
0.0125454
0.0163959
0.0301497
0.0666102
0.132692
0.132692
0.0121945
0.0121945
0.0102603
0.00944386
0.0117407
0.0217022
0.0506814
0.124264
0.265152
0.265152
0.0121945
0.0121945
0.0102603
0.00944386
0.0117407
0.0217022
0.0506814
0.124264
0.265152
0.265152
VECTORS Velocity float
0
0
0
0
0
0
0
0
0
0
0
0
0
0
0
0
0
0
0
0
0
0
0
0
0
0
0
0
0
0
0
0
0
-0.00173498
0.00216874
0
-0.00662042
0.012613
0
-0.00983366
0.0331806
0
-0.0113027
0.0596011
0
-0.0117501
0.0884171
0
-0.0130172
0.119376
0
-0.0121244
0.150803
0
0.0663834
0.0829792
0
1
0
0
0
0
0
-0.00869121
0.00652658
0
-0.0253277
0.0281617
0
-0.0358378
0.0634835
0
-0.0401028
0.105568
0
-0.0388649
0.146646
0
-0.0340586
0.175882
0
-0.0119373
0.170523
0
0.19482
0.0775668
0
1
0
0
0
0
0
-0.0202588
0.0079329
0
-0.0499604
0.0315481
0
-0.0680008
0.0672211
0
-0.0745769
0.108433
0
-0.0678474
0.146676
0
-0.0448734
0.167186
0
0.0201765
0.145921
0
0.305341
0.0605842
0
1
0
0
0
0
0
-0.0320966
0.00686438
0
-0.0724619
0.0261733
0
-0.0966887
0.0544871
0
-0.105593
0.0879057
0
-0.0929757
0.119843
0
-0.0487279
0.135561
0
0.0581065
0.114231
0
0.390437
0.045786
0
1
0
0
0
0
0
-0.0407626
0.00396811
0
-0.0877321
0.0145794
0
-0.116766
0.0304496
0
-0.12919
0.0516234
0
-0.114043
0.0755162
0
-0.0525513
0.0909118
0
0.0886583
0.0788309
0
0.452386
0.0316503
0
1
0
0
0
0
0
-0.0436927
-0.000305556
0
-0.0922673
-0.00158531
0
-0.124533
-0.00207753
0
-0.141876
0.00231557
0
-0.129732
0.0138916
0
-0.0611668
0.0288765
0
0.104757
0.0316033
0
0.488511
0.013505
0
1
0
0
0
0
0
-0.0391201
-0.00541021
0
-0.0838328
-0.0203893
0
-0.117056
-0.0397865
0
-0.139555
-0.0564267
0
-0.135275
-0.0639747
0
-0.0725485
-0.0578036
0
0.100877
-0.0414533
0
0.48651
-0.0160051
0
1
0
0
0
0
0
-0.0270825
-0.00963682
0
-0.0622832
-0.0366417
0
-0.0924633
-0.0749222
0
-0.117693
-0.11635
0
-0.12322
-0.151198
0
-0.0785653
-0.164917
0
0.0721813
-0.137876
0
0.429127
-0.0557245
0
1
0
0
0
0
0
-0.0117903
-0.00947856
0
-0.0324086
-0.0389323
0
-0.053198
-0.0870766
0
-0.0746425
-0.148544
0
-0.086709
-0.213148
0
-0.0675189
-0.258877
0
0.0260049
-0.242005
0
0.300263
-0.105356
0
1
0
0
0
0
0
-0.00210372
-0.0026297
0
-0.00821426
-0.0155272
0
-0.0153313
-0.0449592
0
-0.0240021
-0.0941259
0
-0.0308319
-0.162668
0
-0.0279907
-0.236197
0
0.000485047
-0.270579
0
0.107989
-0.134986
0
1
0
0
0
0
0
0
0
0
0
0
0
0
0
0
0
0
0
0
0
0
0
0
0
0
0
0
0
0
0
0
0
0
